# vtk DataFile Version 3.0
Scalar Field Data
ASCII
DATASET STRUCTURED_POINTS
DIMENSIONS 150 150 1
ORIGIN 0 0 0
SPACING 0.00671141 0.00671141 1
POINT_DATA 22500
SCALARS scalars double
LOOKUP_TABLE default
0
0
0
0
0
0
0
0
0
0
0
0
0
0
0
0
0
0
0
0
0
0
0
0
0
0
0
0
0
0
0
0
0
0
0
0
0
0
0
0
0
0
0
0
0
0
0
0
0
0
0
0
0
0
0
0
0
0
0
0
0
0
0
0
0
0
0
0
0
0
0
0
0
0
0
0
0
0
0
0
0
0
0
0
0
0
0
0
0
0
0
0
0
0
0
0
0
0
0
0
0
0
0
0
0
0
0
0
0
0
0
0
0
0
0
0
0
0
0
0
0
0
0
0
0
0
0
0
0
0
0
0
0
0
0
0
0
0
0
0
0
0
0
0
0
0
0
0
0
0
0
0.00174472
0.00348634
0.00522176
0.0069479
0.00866168
0.0103601
0.01204
0.0136986
0.0153328
0.0169397
0.0185165
0.0200604
0.0215687
0.0230386
0.0244675
0.0258529
0.0271924
0.0284835
0.0297239
0.0309116
0.0320442
0.0331199
0.0341367
0.0350928
0.0359865
0.0368162
0.0375805
0.038278
0.0389074
0.0394676
0.0399576
0.0403766
0.0407239
0.0409987
0.0412006
0.0413293
0.0413844
0.041366
0.0412741
0.0411088
0.0408703
0.0405593
0.0401761
0.0397214
0.0391962
0.0386012
0.0379377
0.0372066
0.0364095
0.0355476
0.0346224
0.0336358
0.0325893
0.0314849
0.0303245
0.0291102
0.0278441
0.0265285
0.0251658
0.0237583
0.0223086
0.0208192
0.0192928
0.0177321
0.0161398
0.0145189
0.0128722
0.0112025
0.00951299
0.00780652
0.00608618
0.00435502
0.00261611
0.000872555
-0.000872555
-0.00261611
-0.00435502
-0.00608618
-0.00780652
-0.00951299
-0.0112025
-0.0128722
-0.0145189
-0.0161398
-0.0177321
-0.0192928
-0.0208192
-0.0223086
-0.0237583
-0.0251658
-0.0265285
-0.0278441
-0.0291102
-0.0303245
-0.0314849
-0.0325893
-0.0336358
-0.0346224
-0.0355476
-0.0364095
-0.0372066
-0.0379377
-0.0386012
-0.0391962
-0.0397214
-0.0401761
-0.0405593
-0.0408703
-0.0411088
-0.0412741
-0.041366
-0.0413844
-0.0413293
-0.0412006
-0.0409987
-0.0407239
-0.0403766
-0.0399576
-0.0394676
-0.0389074
-0.038278
-0.0375805
-0.0368162
-0.0359865
-0.0350928
-0.0341367
-0.0331199
-0.0320442
-0.0309116
-0.0297239
-0.0284835
-0.0271924
-0.0258529
-0.0244675
-0.0230386
-0.0215687
-0.0200604
-0.0185165
-0.0169397
-0.0153328
-0.0136986
-0.01204
-0.0103601
-0.00866168
-0.0069479
-0.00522176
-0.00348634
-0.00174472
0
0
0.00348634
0.00696648
0.0104342
0.0138834
0.017308
0.0207017
0.0240586
0.0273728
0.0306383
0.0338493
0.0370002
0.0400852
0.043099
0.0460362
0.0488915
0.0516599
0.0543364
0.0569163
0.059395
0.0617682
0.0640315
0.0661809
0.0682127
0.0701232
0.071909
0.073567
0.0750942
0.0764879
0.0777456
0.078865
0.0798442
0.0806815
0.0813753
0.0819244
0.0823279
0.082585
0.0826953
0.0826585
0.0824748
0.0821444
0.081668
0.0810464
0.0802807
0.0793723
0.0783227
0.0771339
0.0758079
0.0743471
0.0727542
0.0710319
0.0691833
0.0672117
0.0651207
0.0629138
0.0605951
0.0581686
0.0556387
0.0530099
0.0502868
0.0474744
0.0445775
0.0416014
0.0385513
0.0354326
0.032251
0.029012
0.0257214
0.0223852
0.0190091
0.0155992
0.0121615
0.00870229
0.00522757
0.00174356
-0.00174356
-0.00522757
-0.00870229
-0.0121615
-0.0155992
-0.0190091
-0.0223852
-0.0257214
-0.029012
-0.032251
-0.0354326
-0.0385513
-0.0416014
-0.0445775
-0.0474744
-0.0502868
-0.0530099
-0.0556387
-0.0581686
-0.0605951
-0.0629138
-0.0651207
-0.0672117
-0.0691833
-0.0710319
-0.0727542
-0.0743471
-0.0758079
-0.0771339
-0.0783227
-0.0793723
-0.0802807
-0.0810464
-0.081668
-0.0821444
-0.0824748
-0.0826585
-0.0826953
-0.082585
-0.0823279
-0.0819244
-0.0813753
-0.0806815
-0.0798442
-0.078865
-0.0777456
-0.0764879
-0.0750942
-0.073567
-0.071909
-0.0701232
-0.0682127
-0.0661809
-0.0640315
-0.0617682
-0.059395
-0.0569163
-0.0543364
-0.0516599
-0.0488915
-0.0460362
-0.043099
-0.0400852
-0.0370002
-0.0338493
-0.0306383
-0.0273728
-0.0240586
-0.0207017
-0.017308
-0.0138834
-0.0104342
-0.00696648
-0.00348634
0
0
0.00522176
0.0104342
0.0156282
0.0207943
0.0259235
0.0310065
0.0360345
0.0409984
0.0458894
0.0506988
0.055418
0.0600387
0.0645527
0.0689519
0.0732285
0.0773749
0.0813838
0.0852479
0.0889605
0.0925149
0.0959049
0.0991243
0.102167
0.105029
0.107704
0.110187
0.112474
0.114562
0.116446
0.118122
0.119589
0.120843
0.121882
0.122705
0.123309
0.123694
0.123859
0.123804
0.123529
0.123034
0.122321
0.121389
0.120243
0.118882
0.11731
0.115529
0.113543
0.111355
0.10897
0.10639
0.103621
0.100668
0.0975362
0.0942308
0.0907579
0.0871236
0.0833344
0.079397
0.0753185
0.071106
0.0667672
0.0623096
0.0577412
0.0530702
0.0483048
0.0434535
0.038525
0.033528
0.0284713
0.0233641
0.0182153
0.0130341
0.00782974
0.00261146
-0.00261146
-0.00782974
-0.0130341
-0.0182153
-0.0233641
-0.0284713
-0.033528
-0.038525
-0.0434535
-0.0483048
-0.0530702
-0.0577412
-0.0623096
-0.0667672
-0.071106
-0.0753185
-0.079397
-0.0833344
-0.0871236
-0.0907579
-0.0942308
-0.0975362
-0.100668
-0.103621
-0.10639
-0.10897
-0.111355
-0.113543
-0.115529
-0.11731
-0.118882
-0.120243
-0.121389
-0.122321
-0.123034
-0.123529
-0.123804
-0.123859
-0.123694
-0.123309
-0.122705
-0.121882
-0.120843
-0.119589
-0.118122
-0.116446
-0.114562
-0.112474
-0.110187
-0.107704
-0.105029
-0.102167
-0.0991243
-0.0959049
-0.0925149
-0.0889605
-0.0852479
-0.0813838
-0.0773749
-0.0732285
-0.0689519
-0.0645527
-0.0600387
-0.055418
-0.0506988
-0.0458894
-0.0409984
-0.0360345
-0.0310065
-0.0259235
-0.0207943
-0.0156282
-0.0104342
-0.00522176
0
0
0.0069479
0.0138834
0.0207943
0.0276682
0.0344929
0.0412563
0.0479463
0.054551
0.0610588
0.067458
0.0737373
0.0798855
0.0858916
0.0917451
0.0974354
0.102952
0.108287
0.113428
0.118368
0.123097
0.127608
0.131891
0.13594
0.139748
0.143307
0.146611
0.149655
0.152432
0.154938
0.157169
0.159121
0.160789
0.162172
0.163267
0.164071
0.164583
0.164803
0.164729
0.164363
0.163705
0.162756
0.161517
0.159991
0.15818
0.156089
0.153719
0.151077
0.148166
0.144991
0.141559
0.137875
0.133946
0.129778
0.12538
0.120759
0.115924
0.110882
0.105643
0.100216
0.0946113
0.0888381
0.082907
0.0768285
0.0706134
0.0642727
0.0578178
0.05126
0.0446112
0.037883
0.0310874
0.0242366
0.0173427
0.010418
0.00347472
-0.00347472
-0.010418
-0.0173427
-0.0242366
-0.0310874
-0.037883
-0.0446112
-0.05126
-0.0578178
-0.0642727
-0.0706134
-0.0768285
-0.082907
-0.0888381
-0.0946113
-0.100216
-0.105643
-0.110882
-0.115924
-0.120759
-0.12538
-0.129778
-0.133946
-0.137875
-0.141559
-0.144991
-0.148166
-0.151077
-0.153719
-0.156089
-0.15818
-0.159991
-0.161517
-0.162756
-0.163705
-0.164363
-0.164729
-0.164803
-0.164583
-0.164071
-0.163267
-0.162172
-0.160789
-0.159121
-0.157169
-0.154938
-0.152432
-0.149655
-0.146611
-0.143307
-0.139748
-0.13594
-0.131891
-0.127608
-0.123097
-0.118368
-0.113428
-0.108287
-0.102952
-0.0974354
-0.0917451
-0.0858916
-0.0798855
-0.0737373
-0.067458
-0.0610588
-0.054551
-0.0479463
-0.0412563
-0.0344929
-0.0276682
-0.0207943
-0.0138834
-0.0069479
0
0
0.00866168
0.017308
0.0259235
0.0344929
0.043001
0.0514326
0.0597728
0.0680067
0.0761197
0.0840974
0.0919255
0.0995902
0.107078
0.114375
0.121469
0.128347
0.134997
0.141406
0.147565
0.153461
0.159084
0.164424
0.169472
0.174218
0.178655
0.182774
0.186569
0.190031
0.193156
0.195937
0.19837
0.20045
0.202174
0.203538
0.204541
0.205179
0.205453
0.205362
0.204906
0.204085
0.202901
0.201357
0.199454
0.197197
0.19459
0.191636
0.188342
0.184713
0.180755
0.176476
0.171883
0.166985
0.16179
0.156307
0.150546
0.144518
0.138232
0.131701
0.124936
0.117948
0.110751
0.103357
0.0957792
0.088031
0.0801264
0.0720792
0.063904
0.0556151
0.0472273
0.0387555
0.0302149
0.0216205
0.0129877
0.0043318
-0.0043318
-0.0129877
-0.0216205
-0.0302149
-0.0387555
-0.0472273
-0.0556151
-0.063904
-0.0720792
-0.0801264
-0.088031
-0.0957792
-0.103357
-0.110751
-0.117948
-0.124936
-0.131701
-0.138232
-0.144518
-0.150546
-0.156307
-0.16179
-0.166985
-0.171883
-0.176476
-0.180755
-0.184713
-0.188342
-0.191636
-0.19459
-0.197197
-0.199454
-0.201357
-0.202901
-0.204085
-0.204906
-0.205362
-0.205453
-0.205179
-0.204541
-0.203538
-0.202174
-0.20045
-0.19837
-0.195937
-0.193156
-0.190031
-0.186569
-0.182774
-0.178655
-0.174218
-0.169472
-0.164424
-0.159084
-0.153461
-0.147565
-0.141406
-0.134997
-0.128347
-0.121469
-0.114375
-0.107078
-0.0995902
-0.0919255
-0.0840974
-0.0761197
-0.0680067
-0.0597728
-0.0514326
-0.043001
-0.0344929
-0.0259235
-0.017308
-0.00866168
0
0
0.0103601
0.0207017
0.0310065
0.0412563
0.0514326
0.0615175
0.0714931
0.0813415
0.0910453
0.100587
0.10995
0.119118
0.128074
0.136802
0.145287
0.153513
0.161467
0.169133
0.176499
0.183551
0.190277
0.196664
0.202702
0.208379
0.213686
0.218613
0.223151
0.227293
0.23103
0.234356
0.237266
0.239754
0.241816
0.243448
0.244647
0.245411
0.245739
0.245629
0.245083
0.244102
0.242686
0.240839
0.238563
0.235864
0.232745
0.229212
0.225272
0.220931
0.216198
0.21108
0.205586
0.199727
0.193514
0.186956
0.180065
0.172855
0.165337
0.157525
0.149433
0.141076
0.132467
0.123623
0.11456
0.105292
0.0958375
0.0862125
0.0764343
0.0665201
0.0564876
0.0463547
0.0361394
0.0258599
0.0155343
0.00518118
-0.00518118
-0.0155343
-0.0258599
-0.0361394
-0.0463547
-0.0564876
-0.0665201
-0.0764343
-0.0862125
-0.0958375
-0.105292
-0.11456
-0.123623
-0.132467
-0.141076
-0.149433
-0.157525
-0.165337
-0.172855
-0.180065
-0.186956
-0.193514
-0.199727
-0.205586
-0.21108
-0.216198
-0.220931
-0.225272
-0.229212
-0.232745
-0.235864
-0.238563
-0.240839
-0.242686
-0.244102
-0.245083
-0.245629
-0.245739
-0.245411
-0.244647
-0.243448
-0.241816
-0.239754
-0.237266
-0.234356
-0.23103
-0.227293
-0.223151
-0.218613
-0.213686
-0.208379
-0.202702
-0.196664
-0.190277
-0.183551
-0.176499
-0.169133
-0.161467
-0.153513
-0.145287
-0.136802
-0.128074
-0.119118
-0.10995
-0.100587
-0.0910453
-0.0813415
-0.0714931
-0.0615175
-0.0514326
-0.0412563
-0.0310065
-0.0207017
-0.0103601
0
0
0.01204
0.0240586
0.0360345
0.0479463
0.0597728
0.0714931
0.0830862
0.0945316
0.105809
0.116898
0.12778
0.138434
0.148842
0.158985
0.168846
0.178407
0.18765
0.19656
0.20512
0.213315
0.221132
0.228555
0.235572
0.24217
0.248337
0.254063
0.259337
0.26415
0.268493
0.272359
0.275741
0.278632
0.281028
0.282925
0.284318
0.285206
0.285587
0.28546
0.284826
0.283685
0.282039
0.279893
0.277248
0.274111
0.270486
0.266381
0.261801
0.256757
0.251256
0.245308
0.238924
0.232115
0.224893
0.217272
0.209264
0.200884
0.192147
0.183069
0.173665
0.163952
0.153948
0.14367
0.133136
0.122366
0.111378
0.100193
0.0888287
0.0773068
0.0656475
0.0538715
0.0419997
0.0300533
0.0180534
0.00602135
-0.00602135
-0.0180534
-0.0300533
-0.0419997
-0.0538715
-0.0656475
-0.0773068
-0.0888287
-0.100193
-0.111378
-0.122366
-0.133136
-0.14367
-0.153948
-0.163952
-0.173665
-0.183069
-0.192147
-0.200884
-0.209264
-0.217272
-0.224893
-0.232115
-0.238924
-0.245308
-0.251256
-0.256757
-0.261801
-0.266381
-0.270486
-0.274111
-0.277248
-0.279893
-0.282039
-0.283685
-0.284826
-0.28546
-0.285587
-0.285206
-0.284318
-0.282925
-0.281028
-0.278632
-0.275741
-0.272359
-0.268493
-0.26415
-0.259337
-0.254063
-0.248337
-0.24217
-0.235572
-0.228555
-0.221132
-0.213315
-0.20512
-0.19656
-0.18765
-0.178407
-0.168846
-0.158985
-0.148842
-0.138434
-0.12778
-0.116898
-0.105809
-0.0945316
-0.0830862
-0.0714931
-0.0597728
-0.0479463
-0.0360345
-0.0240586
-0.01204
0
0
0.0136986
0.0273728
0.0409984
0.054551
0.0680067
0.0813415
0.0945316
0.107554
0.120385
0.133001
0.145382
0.157504
0.169345
0.180886
0.192105
0.202983
0.213499
0.223636
0.233376
0.2427
0.251593
0.260039
0.268022
0.275529
0.282546
0.289061
0.295061
0.300537
0.305479
0.309878
0.313725
0.317015
0.319741
0.321899
0.323484
0.324494
0.324928
0.324783
0.324061
0.322763
0.320891
0.318449
0.31544
0.311871
0.307747
0.303076
0.297866
0.292126
0.285867
0.2791
0.271836
0.264089
0.255873
0.247202
0.238091
0.228557
0.218617
0.208287
0.197588
0.186537
0.175155
0.163461
0.151476
0.139222
0.126721
0.113994
0.101065
0.0879561
0.0746907
0.0612925
0.0477853
0.0341932
0.0205403
0.00685081
-0.00685081
-0.0205403
-0.0341932
-0.0477853
-0.0612925
-0.0746907
-0.0879561
-0.101065
-0.113994
-0.126721
-0.139222
-0.151476
-0.163461
-0.175155
-0.186537
-0.197588
-0.208287
-0.218617
-0.228557
-0.238091
-0.247202
-0.255873
-0.264089
-0.271836
-0.2791
-0.285867
-0.292126
-0.297866
-0.303076
-0.307747
-0.311871
-0.31544
-0.318449
-0.320891
-0.322763
-0.324061
-0.324783
-0.324928
-0.324494
-0.323484
-0.321899
-0.319741
-0.317015
-0.313725
-0.309878
-0.305479
-0.300537
-0.295061
-0.289061
-0.282546
-0.275529
-0.268022
-0.260039
-0.251593
-0.2427
-0.233376
-0.223636
-0.213499
-0.202983
-0.192105
-0.180886
-0.169345
-0.157504
-0.145382
-0.133001
-0.120385
-0.107554
-0.0945316
-0.0813415
-0.0680067
-0.054551
-0.0409984
-0.0273728
-0.0136986
0
0
0.0153328
0.0306383
0.0458894
0.0610588
0.0761197
0.0910453
0.105809
0.120385
0.134746
0.148868
0.162725
0.176293
0.189548
0.202465
0.215023
0.227198
0.238969
0.250316
0.261217
0.271654
0.281608
0.291061
0.299997
0.308399
0.316253
0.323545
0.330261
0.336391
0.341922
0.346845
0.351152
0.354834
0.357885
0.3603
0.362075
0.363206
0.363691
0.363529
0.362721
0.361268
0.359173
0.356439
0.353071
0.349076
0.34446
0.339232
0.3334
0.326976
0.31997
0.312396
0.304266
0.295595
0.286398
0.276692
0.266495
0.255823
0.244697
0.233135
0.22116
0.20879
0.19605
0.182961
0.169547
0.155831
0.141839
0.127594
0.113122
0.098449
0.0836011
0.0686045
0.053486
0.0382723
0.0229907
0.0076681
-0.0076681
-0.0229907
-0.0382723
-0.053486
-0.0686045
-0.0836011
-0.098449
-0.113122
-0.127594
-0.141839
-0.155831
-0.169547
-0.182961
-0.19605
-0.20879
-0.22116
-0.233135
-0.244697
-0.255823
-0.266495
-0.276692
-0.286398
-0.295595
-0.304266
-0.312396
-0.31997
-0.326976
-0.3334
-0.339232
-0.34446
-0.349076
-0.353071
-0.356439
-0.359173
-0.361268
-0.362721
-0.363529
-0.363691
-0.363206
-0.362075
-0.3603
-0.357885
-0.354834
-0.351152
-0.346845
-0.341922
-0.336391
-0.330261
-0.323545
-0.316253
-0.308399
-0.299997
-0.291061
-0.281608
-0.271654
-0.261217
-0.250316
-0.238969
-0.227198
-0.215023
-0.202465
-0.189548
-0.176293
-0.162725
-0.148868
-0.134746
-0.120385
-0.105809
-0.0910453
-0.0761197
-0.0610588
-0.0458894
-0.0306383
-0.0153328
0
0
0.0169397
0.0338493
0.0506988
0.067458
0.0840974
0.100587
0.116898
0.133001
0.148868
0.16447
0.17978
0.194769
0.209413
0.223684
0.237558
0.251009
0.264014
0.27655
0.288594
0.300124
0.311121
0.321565
0.331438
0.340721
0.349398
0.357454
0.364874
0.371646
0.377757
0.383196
0.387954
0.392022
0.395393
0.398061
0.400022
0.401271
0.401807
0.401628
0.400736
0.39913
0.396816
0.393795
0.390075
0.385661
0.380561
0.374785
0.368342
0.361244
0.353504
0.345136
0.336154
0.326574
0.316414
0.305691
0.294424
0.282634
0.270342
0.257569
0.244338
0.230672
0.216597
0.202136
0.187316
0.172163
0.156704
0.140966
0.124978
0.108767
0.0923628
0.0757946
0.0590915
0.0422834
0.0254002
0.00847175
-0.00847175
-0.0254002
-0.0422834
-0.0590915
-0.0757946
-0.0923628
-0.108767
-0.124978
-0.140966
-0.156704
-0.172163
-0.187316
-0.202136
-0.216597
-0.230672
-0.244338
-0.257569
-0.270342
-0.282634
-0.294424
-0.305691
-0.316414
-0.326574
-0.336154
-0.345136
-0.353504
-0.361244
-0.368342
-0.374785
-0.380561
-0.385661
-0.390075
-0.393795
-0.396816
-0.39913
-0.400736
-0.401628
-0.401807
-0.401271
-0.400022
-0.398061
-0.395393
-0.392022
-0.387954
-0.383196
-0.377757
-0.371646
-0.364874
-0.357454
-0.349398
-0.340721
-0.331438
-0.321565
-0.311121
-0.300124
-0.288594
-0.27655
-0.264014
-0.251009
-0.237558
-0.223684
-0.209413
-0.194769
-0.17978
-0.16447
-0.148868
-0.133001
-0.116898
-0.100587
-0.0840974
-0.067458
-0.0506988
-0.0338493
-0.0169397
0
0
0.0185165
0.0370002
0.055418
0.0737373
0.0919255
0.10995
0.12778
0.145382
0.162725
0.17978
0.196514
0.212899
0.228906
0.244506
0.259671
0.274374
0.28859
0.302292
0.315457
0.328061
0.340082
0.351498
0.362289
0.372436
0.381921
0.390727
0.398838
0.40624
0.41292
0.418865
0.424066
0.428513
0.432198
0.435115
0.437258
0.438623
0.439209
0.439014
0.438038
0.436283
0.433753
0.430451
0.426384
0.42156
0.415985
0.409671
0.402629
0.39487
0.38641
0.377263
0.367444
0.356973
0.345867
0.334146
0.321831
0.308943
0.295507
0.281545
0.267082
0.252144
0.236759
0.220952
0.204752
0.188189
0.17129
0.154088
0.136611
0.118891
0.10096
0.0828498
0.064592
0.0462194
0.0277645
0.00926033
-0.00926033
-0.0277645
-0.0462194
-0.064592
-0.0828498
-0.10096
-0.118891
-0.136611
-0.154088
-0.17129
-0.188189
-0.204752
-0.220952
-0.236759
-0.252144
-0.267082
-0.281545
-0.295507
-0.308943
-0.321831
-0.334146
-0.345867
-0.356973
-0.367444
-0.377263
-0.38641
-0.39487
-0.402629
-0.409671
-0.415985
-0.42156
-0.426384
-0.430451
-0.433753
-0.436283
-0.438038
-0.439014
-0.439209
-0.438623
-0.437258
-0.435115
-0.432198
-0.428513
-0.424066
-0.418865
-0.41292
-0.40624
-0.398838
-0.390727
-0.381921
-0.372436
-0.362289
-0.351498
-0.340082
-0.328061
-0.315457
-0.302292
-0.28859
-0.274374
-0.259671
-0.244506
-0.228906
-0.212899
-0.196514
-0.17978
-0.162725
-0.145382
-0.12778
-0.10995
-0.0919255
-0.0737373
-0.055418
-0.0370002
-0.0185165
0
0
0.0200604
0.0400852
0.0600387
0.0798855
0.0995902
0.119118
0.138434
0.157504
0.176293
0.194769
0.212899
0.230651
0.247992
0.264893
0.281322
0.297251
0.312652
0.327497
0.34176
0.355415
0.368438
0.380806
0.392497
0.40349
0.413766
0.423306
0.432093
0.440112
0.447349
0.45379
0.459425
0.464242
0.468235
0.471394
0.473716
0.475195
0.47583
0.475618
0.474561
0.47266
0.469919
0.466342
0.461936
0.456709
0.45067
0.443829
0.4362
0.427794
0.418629
0.408719
0.398082
0.386737
0.374705
0.362007
0.348665
0.334703
0.320146
0.30502
0.289351
0.273168
0.256499
0.239375
0.221824
0.20388
0.185573
0.166935
0.148002
0.128804
0.109378
0.0897578
0.0699777
0.0500731
0.0300795
0.0100325
-0.0100325
-0.0300795
-0.0500731
-0.0699777
-0.0897578
-0.109378
-0.128804
-0.148002
-0.166935
-0.185573
-0.20388
-0.221824
-0.239375
-0.256499
-0.273168
-0.289351
-0.30502
-0.320146
-0.334703
-0.348665
-0.362007
-0.374705
-0.386737
-0.398082
-0.408719
-0.418629
-0.427794
-0.4362
-0.443829
-0.45067
-0.456709
-0.461936
-0.466342
-0.469919
-0.47266
-0.474561
-0.475618
-0.47583
-0.475195
-0.473716
-0.471394
-0.468235
-0.464242
-0.459425
-0.45379
-0.447349
-0.440112
-0.432093
-0.423306
-0.413766
-0.40349
-0.392497
-0.380806
-0.368438
-0.355415
-0.34176
-0.327497
-0.312652
-0.297251
-0.281322
-0.264893
-0.247992
-0.230651
-0.212899
-0.194769
-0.176293
-0.157504
-0.138434
-0.119118
-0.0995902
-0.0798855
-0.0600387
-0.0400852
-0.0200604
0
0
0.0215687
0.043099
0.0645527
0.0858916
0.107078
0.128074
0.148842
0.169345
0.189548
0.209413
0.228906
0.247992
0.266637
0.284809
0.302473
0.3196
0.336159
0.35212
0.367455
0.382136
0.396139
0.409436
0.422006
0.433826
0.444874
0.455132
0.46458
0.473202
0.480983
0.487908
0.493966
0.499146
0.503439
0.506836
0.509332
0.510923
0.511605
0.511377
0.510241
0.508197
0.505249
0.501404
0.496667
0.491046
0.484553
0.477198
0.468995
0.459958
0.450103
0.439448
0.428011
0.415814
0.402877
0.389224
0.374879
0.359867
0.344216
0.327952
0.311106
0.293706
0.275784
0.257372
0.238502
0.219208
0.199525
0.179486
0.159129
0.138489
0.117602
0.0965062
0.0752389
0.0538378
0.032341
0.0107867
-0.0107867
-0.032341
-0.0538378
-0.0752389
-0.0965062
-0.117602
-0.138489
-0.159129
-0.179486
-0.199525
-0.219208
-0.238502
-0.257372
-0.275784
-0.293706
-0.311106
-0.327952
-0.344216
-0.359867
-0.374879
-0.389224
-0.402877
-0.415814
-0.428011
-0.439448
-0.450103
-0.459958
-0.468995
-0.477198
-0.484553
-0.491046
-0.496667
-0.501404
-0.505249
-0.508197
-0.510241
-0.511377
-0.511605
-0.510923
-0.509332
-0.506836
-0.503439
-0.499146
-0.493966
-0.487908
-0.480983
-0.473202
-0.46458
-0.455132
-0.444874
-0.433826
-0.422006
-0.409436
-0.396139
-0.382136
-0.367455
-0.35212
-0.336159
-0.3196
-0.302473
-0.284809
-0.266637
-0.247992
-0.228906
-0.209413
-0.189548
-0.169345
-0.148842
-0.128074
-0.107078
-0.0858916
-0.0645527
-0.043099
-0.0215687
0
0
0.0230386
0.0460362
0.0689519
0.0917451
0.114375
0.136802
0.158985
0.180886
0.202465
0.223684
0.244506
0.264893
0.284809
0.304218
0.323086
0.341381
0.359068
0.376116
0.392496
0.408179
0.423135
0.437339
0.450766
0.463391
0.475192
0.486148
0.49624
0.50545
0.513761
0.521159
0.52763
0.533162
0.537747
0.541376
0.544042
0.545741
0.54647
0.546227
0.545013
0.54283
0.539682
0.535574
0.530514
0.524511
0.517575
0.509719
0.500957
0.491304
0.480777
0.469396
0.45718
0.444151
0.430333
0.415749
0.400427
0.384392
0.367674
0.350302
0.332307
0.313722
0.294579
0.274912
0.254756
0.234147
0.213122
0.191718
0.169973
0.147926
0.125616
0.103083
0.0803664
0.0575068
0.034545
0.0115218
-0.0115218
-0.034545
-0.0575068
-0.0803664
-0.103083
-0.125616
-0.147926
-0.169973
-0.191718
-0.213122
-0.234147
-0.254756
-0.274912
-0.294579
-0.313722
-0.332307
-0.350302
-0.367674
-0.384392
-0.400427
-0.415749
-0.430333
-0.444151
-0.45718
-0.469396
-0.480777
-0.491304
-0.500957
-0.509719
-0.517575
-0.524511
-0.530514
-0.535574
-0.539682
-0.54283
-0.545013
-0.546227
-0.54647
-0.545741
-0.544042
-0.541376
-0.537747
-0.533162
-0.52763
-0.521159
-0.513761
-0.50545
-0.49624
-0.486148
-0.475192
-0.463391
-0.450766
-0.437339
-0.423135
-0.408179
-0.392496
-0.376116
-0.359068
-0.341381
-0.323086
-0.304218
-0.284809
-0.264893
-0.244506
-0.223684
-0.202465
-0.180886
-0.158985
-0.136802
-0.114375
-0.0917451
-0.0689519
-0.0460362
-0.0230386
0
0
0.0244675
0.0488915
0.0732285
0.0974354
0.121469
0.145287
0.168846
0.192105
0.215023
0.237558
0.259671
0.281322
0.302473
0.323086
0.343125
0.362554
0.381338
0.399444
0.41684
0.433495
0.449379
0.464464
0.478724
0.492132
0.504665
0.516301
0.527019
0.5368
0.545626
0.553482
0.560355
0.566231
0.5711
0.574954
0.577786
0.57959
0.580364
0.580106
0.578816
0.576498
0.573154
0.568792
0.563418
0.557042
0.549676
0.541333
0.532027
0.521776
0.510596
0.498509
0.485536
0.471699
0.457023
0.441535
0.425262
0.408233
0.390478
0.372029
0.352918
0.33318
0.312849
0.291963
0.270557
0.24867
0.226341
0.203609
0.180516
0.157101
0.133407
0.109477
0.0853509
0.0610736
0.0366876
0.0122365
-0.0122365
-0.0366876
-0.0610736
-0.0853509
-0.109477
-0.133407
-0.157101
-0.180516
-0.203609
-0.226341
-0.24867
-0.270557
-0.291963
-0.312849
-0.33318
-0.352918
-0.372029
-0.390478
-0.408233
-0.425262
-0.441535
-0.457023
-0.471699
-0.485536
-0.498509
-0.510596
-0.521776
-0.532027
-0.541333
-0.549676
-0.557042
-0.563418
-0.568792
-0.573154
-0.576498
-0.578816
-0.580106
-0.580364
-0.57959
-0.577786
-0.574954
-0.5711
-0.566231
-0.560355
-0.553482
-0.545626
-0.5368
-0.527019
-0.516301
-0.504665
-0.492132
-0.478724
-0.464464
-0.449379
-0.433495
-0.41684
-0.399444
-0.381338
-0.362554
-0.343125
-0.323086
-0.302473
-0.281322
-0.259671
-0.237558
-0.215023
-0.192105
-0.168846
-0.145287
-0.121469
-0.0974354
-0.0732285
-0.0488915
-0.0244675
0
0
0.0258529
0.0516599
0.0773749
0.102952
0.128347
0.153513
0.178407
0.202983
0.227198
0.251009
0.274374
0.297251
0.3196
0.341381
0.362554
0.383083
0.402931
0.422062
0.440443
0.458041
0.474824
0.490764
0.50583
0.519998
0.533241
0.545535
0.55686
0.567195
0.576521
0.584822
0.592084
0.598292
0.603437
0.60751
0.610502
0.612408
0.613226
0.612953
0.611591
0.609141
0.605608
0.600999
0.59532
0.588584
0.580801
0.571985
0.562152
0.55132
0.539508
0.526736
0.513028
0.498408
0.482901
0.466536
0.449342
0.431348
0.412588
0.393094
0.372901
0.352046
0.330564
0.308494
0.285876
0.26275
0.239157
0.215138
0.190737
0.165997
0.140961
0.115675
0.0901838
0.0645317
0.038765
0.0129293
-0.0129293
-0.038765
-0.0645317
-0.0901838
-0.115675
-0.140961
-0.165997
-0.190737
-0.215138
-0.239157
-0.26275
-0.285876
-0.308494
-0.330564
-0.352046
-0.372901
-0.393094
-0.412588
-0.431348
-0.449342
-0.466536
-0.482901
-0.498408
-0.513028
-0.526736
-0.539508
-0.55132
-0.562152
-0.571985
-0.580801
-0.588584
-0.59532
-0.600999
-0.605608
-0.609141
-0.611591
-0.612953
-0.613226
-0.612408
-0.610502
-0.60751
-0.603437
-0.598292
-0.592084
-0.584822
-0.576521
-0.567195
-0.55686
-0.545535
-0.533241
-0.519998
-0.50583
-0.490764
-0.474824
-0.458041
-0.440443
-0.422062
-0.402931
-0.383083
-0.362554
-0.341381
-0.3196
-0.297251
-0.274374
-0.251009
-0.227198
-0.202983
-0.178407
-0.153513
-0.128347
-0.102952
-0.0773749
-0.0516599
-0.0258529
0
0
0.0271924
0.0543364
0.0813838
0.108287
0.134997
0.161467
0.18765
0.213499
0.238969
0.264014
0.28859
0.312652
0.336159
0.359068
0.381338
0.402931
0.423807
0.443929
0.463263
0.481772
0.499425
0.51619
0.532038
0.546939
0.560868
0.5738
0.585711
0.596582
0.606391
0.615122
0.62276
0.62929
0.634702
0.638985
0.642132
0.644137
0.644997
0.644711
0.643278
0.640701
0.636985
0.632137
0.626164
0.619079
0.610892
0.60162
0.591278
0.579884
0.56746
0.554027
0.539608
0.524231
0.507921
0.490708
0.472623
0.453697
0.433965
0.413461
0.392222
0.370285
0.347691
0.324478
0.300688
0.276363
0.251548
0.226285
0.200619
0.174597
0.148265
0.121669
0.0948562
0.0678752
0.0407734
0.0135992
-0.0135992
-0.0407734
-0.0678752
-0.0948562
-0.121669
-0.148265
-0.174597
-0.200619
-0.226285
-0.251548
-0.276363
-0.300688
-0.324478
-0.347691
-0.370285
-0.392222
-0.413461
-0.433965
-0.453697
-0.472623
-0.490708
-0.507921
-0.524231
-0.539608
-0.554027
-0.56746
-0.579884
-0.591278
-0.60162
-0.610892
-0.619079
-0.626164
-0.632137
-0.636985
-0.640701
-0.643278
-0.644711
-0.644997
-0.644137
-0.642132
-0.638985
-0.634702
-0.62929
-0.62276
-0.615122
-0.606391
-0.596582
-0.585711
-0.5738
-0.560868
-0.546939
-0.532038
-0.51619
-0.499425
-0.481772
-0.463263
-0.443929
-0.423807
-0.402931
-0.381338
-0.359068
-0.336159
-0.312652
-0.28859
-0.264014
-0.238969
-0.213499
-0.18765
-0.161467
-0.134997
-0.108287
-0.0813838
-0.0543364
-0.0271924
0
0
0.0284835
0.0569163
0.0852479
0.113428
0.141406
0.169133
0.19656
0.223636
0.250316
0.27655
0.302292
0.327497
0.35212
0.376116
0.399444
0.422062
0.443929
0.465007
0.485259
0.504647
0.523138
0.540699
0.557299
0.572908
0.587498
0.601044
0.613521
0.624908
0.635183
0.644329
0.652329
0.659169
0.664838
0.669324
0.672621
0.674721
0.675622
0.675322
0.673821
0.671122
0.667229
0.662151
0.655895
0.648473
0.639898
0.630185
0.619352
0.607418
0.594403
0.580332
0.565229
0.549121
0.532037
0.514007
0.495063
0.475239
0.454569
0.433092
0.410845
0.387867
0.364199
0.339884
0.314965
0.289485
0.263491
0.237029
0.210145
0.182887
0.155304
0.127446
0.0993601
0.0710979
0.0427094
0.0142449
-0.0142449
-0.0427094
-0.0710979
-0.0993601
-0.127446
-0.155304
-0.182887
-0.210145
-0.237029
-0.263491
-0.289485
-0.314965
-0.339884
-0.364199
-0.387867
-0.410845
-0.433092
-0.454569
-0.475239
-0.495063
-0.514007
-0.532037
-0.549121
-0.565229
-0.580332
-0.594403
-0.607418
-0.619352
-0.630185
-0.639898
-0.648473
-0.655895
-0.662151
-0.667229
-0.671122
-0.673821
-0.675322
-0.675622
-0.674721
-0.672621
-0.669324
-0.664838
-0.659169
-0.652329
-0.644329
-0.635183
-0.624908
-0.613521
-0.601044
-0.587498
-0.572908
-0.557299
-0.540699
-0.523138
-0.504647
-0.485259
-0.465007
-0.443929
-0.422062
-0.399444
-0.376116
-0.35212
-0.327497
-0.302292
-0.27655
-0.250316
-0.223636
-0.19656
-0.169133
-0.141406
-0.113428
-0.0852479
-0.0569163
-0.0284835
0
0
0.0297239
0.059395
0.0889605
0.118368
0.147565
0.176499
0.20512
0.233376
0.261217
0.288594
0.315457
0.34176
0.367455
0.392496
0.41684
0.440443
0.463263
0.485259
0.506392
0.526625
0.545921
0.564247
0.58157
0.597858
0.613084
0.62722
0.64024
0.652122
0.662845
0.672389
0.680738
0.687877
0.693792
0.698474
0.701914
0.704106
0.705046
0.704732
0.703166
0.700349
0.696288
0.690988
0.684459
0.676714
0.667766
0.65763
0.646325
0.633871
0.62029
0.605606
0.589845
0.573036
0.555208
0.536392
0.516623
0.495935
0.474366
0.451953
0.428737
0.404758
0.38006
0.354686
0.328681
0.302092
0.274966
0.247351
0.219297
0.190852
0.162068
0.132996
0.103687
0.0741943
0.0445694
0.0148653
-0.0148653
-0.0445694
-0.0741943
-0.103687
-0.132996
-0.162068
-0.190852
-0.219297
-0.247351
-0.274966
-0.302092
-0.328681
-0.354686
-0.38006
-0.404758
-0.428737
-0.451953
-0.474366
-0.495935
-0.516623
-0.536392
-0.555208
-0.573036
-0.589845
-0.605606
-0.62029
-0.633871
-0.646325
-0.65763
-0.667766
-0.676714
-0.684459
-0.690988
-0.696288
-0.700349
-0.703166
-0.704732
-0.705046
-0.704106
-0.701914
-0.698474
-0.693792
-0.687877
-0.680738
-0.672389
-0.662845
-0.652122
-0.64024
-0.62722
-0.613084
-0.597858
-0.58157
-0.564247
-0.545921
-0.526625
-0.506392
-0.485259
-0.463263
-0.440443
-0.41684
-0.392496
-0.367455
-0.34176
-0.315457
-0.288594
-0.261217
-0.233376
-0.20512
-0.176499
-0.147565
-0.118368
-0.0889605
-0.059395
-0.0297239
0
0
0.0309116
0.0617682
0.0925149
0.123097
0.153461
0.183551
0.213315
0.2427
0.271654
0.300124
0.328061
0.355415
0.382136
0.408179
0.433495
0.458041
0.481772
0.504647
0.526625
0.547666
0.567733
0.586792
0.604806
0.621746
0.63758
0.65228
0.665821
0.678178
0.689329
0.699255
0.707937
0.715361
0.721512
0.726381
0.729959
0.732238
0.733216
0.73289
0.731261
0.728332
0.724108
0.718596
0.711807
0.703752
0.694446
0.683906
0.672149
0.659197
0.645073
0.629803
0.613412
0.595931
0.577391
0.557824
0.537265
0.515751
0.493319
0.470011
0.445867
0.42093
0.395245
0.368858
0.341814
0.314163
0.285953
0.257234
0.228059
0.198477
0.168543
0.13831
0.10783
0.0771587
0.0463502
0.0154592
-0.0154592
-0.0463502
-0.0771587
-0.10783
-0.13831
-0.168543
-0.198477
-0.228059
-0.257234
-0.285953
-0.314163
-0.341814
-0.368858
-0.395245
-0.42093
-0.445867
-0.470011
-0.493319
-0.515751
-0.537265
-0.557824
-0.577391
-0.595931
-0.613412
-0.629803
-0.645073
-0.659197
-0.672149
-0.683906
-0.694446
-0.703752
-0.711807
-0.718596
-0.724108
-0.728332
-0.731261
-0.73289
-0.733216
-0.732238
-0.729959
-0.726381
-0.721512
-0.715361
-0.707937
-0.699255
-0.689329
-0.678178
-0.665821
-0.65228
-0.63758
-0.621746
-0.604806
-0.586792
-0.567733
-0.547666
-0.526625
-0.504647
-0.481772
-0.458041
-0.433495
-0.408179
-0.382136
-0.355415
-0.328061
-0.300124
-0.271654
-0.2427
-0.213315
-0.183551
-0.153461
-0.123097
-0.0925149
-0.0617682
-0.0309116
0
0
0.0320442
0.0640315
0.0959049
0.127608
0.159084
0.190277
0.221132
0.251593
0.281608
0.311121
0.340082
0.368438
0.396139
0.423135
0.449379
0.474824
0.499425
0.523138
0.545921
0.567733
0.588536
0.608293
0.626968
0.644528
0.660942
0.676181
0.690218
0.703028
0.714587
0.724877
0.733877
0.741573
0.74795
0.752997
0.756706
0.759069
0.760082
0.759744
0.758056
0.755019
0.75064
0.744927
0.737889
0.729539
0.719892
0.708965
0.696778
0.683351
0.66871
0.65288
0.635889
0.617767
0.598548
0.578263
0.556951
0.534649
0.511395
0.487233
0.462205
0.436354
0.409728
0.382373
0.354339
0.325674
0.29643
0.26666
0.236415
0.20575
0.174719
0.143378
0.111781
0.0799859
0.0480485
0.0160257
-0.0160257
-0.0480485
-0.0799859
-0.111781
-0.143378
-0.174719
-0.20575
-0.236415
-0.26666
-0.29643